[
    {
        "builder_meta": {
            "emmet_version": "0.84.6rc5",
            "pymatgen_version": "2024.11.13",
            "run_id": "594815f4-e1b1-4ff4-9598-f5e9f2d2cc26",
            "batch_id": null,
            "database_version": "2025.09.25",
            "build_date": "2025-03-20T19:30:53.043000",
            "license": null
        },
        "nsites": 12,
        "elements": [
            "Mg",
            "Te"
        ],
        "nelements": 2,
        "composition": {
            "Mg": 4.0,
            "Te": 8.0
        },
        "composition_reduced": {
            "Mg": 1.0,
            "Te": 2.0
        },
        "formula_pretty": "MgTe2",
        "formula_anonymous": "AB2",
        "chemsys": "Mg-Te",
        "volume": 359.28461073866663,
        "density": 5.167256916507104,
        "density_atomic": 29.940384228222218,
        "symmetry": {
            "crystal_system": "Cubic",
            "symbol": "Pa-3",
            "number": 205,
            "point_group": "m-3",
            "symprec": 0.1,
            "angle_tolerance": 5.0,
            "version": "2.6.0"
        },
        "property_name": "elasticity",
        "material_id": "mp-2604",
        "deprecated": false,
        "deprecation_reasons": null,
        "last_updated": "2025-03-20T19:30:53.043000",
        "origins": [],
        "warnings": [],
        "structure": {
            "@module": "pymatgen.core.structure",
            "@class": "Structure",
            "charge": 0.0,
            "lattice": {
                "matrix": [
                    [
                        7.10907133,
                        0.0,
                        0.0
                    ],
                    [
                        0.0,
                        7.10907133,
                        0.0
                    ],
                    [
                        0.0,
                        0.0,
                        7.10907133
                    ]
                ],
                "pbc": [
                    true,
                    true,
                    true
                ],
                "a": 7.10907133,
                "b": 7.10907133,
                "c": 7.10907133,
                "alpha": 90.0,
                "beta": 90.0,
                "gamma": 90.0,
                "volume": 359.28461073866663
            },
            "properties": {},
            "sites": [
                {
                    "species": [
                        {
                            "element": "Mg",
                            "occu": 1
                        }
                    ],
                    "abc": [
                        0.0,
                        0.0,
                        0.0
                    ],
                    "properties": {
                        "magmom": -0.0
                    },
                    "label": "Mg",
                    "xyz": [
                        0.0,
                        0.0,
                        0.0
                    ]
                },
                {
                    "species": [
                        {
                            "element": "Mg",
                            "occu": 1
                        }
                    ],
                    "abc": [
                        0.5,
                        0.0,
                        0.5
                    ],
                    "properties": {
                        "magmom": -0.0
                    },
                    "label": "Mg",
                    "xyz": [
                        3.554535665,
                        0.0,
                        3.554535665
                    ]
                },
                {
                    "species": [
                        {
                            "element": "Mg",
                            "occu": 1
                        }
                    ],
                    "abc": [
                        0.5,
                        0.5,
                        0.0
                    ],
                    "properties": {
                        "magmom": -0.0
                    },
                    "label": "Mg",
                    "xyz": [
                        3.554535665,
                        3.554535665,
                        0.0
                    ]
                },
                {
                    "species": [
                        {
                            "element": "Mg",
                            "occu": 1
                        }
                    ],
                    "abc": [
                        0.0,
                        0.5,
                        0.5
                    ],
                    "properties": {
                        "magmom": -0.0
                    },
                    "label": "Mg",
                    "xyz": [
                        0.0,
                        3.554535665,
                        3.554535665
                    ]
                },
                {
                    "species": [
                        {
                            "element": "Te",
                            "occu": 1
                        }
                    ],
                    "abc": [
                        0.38666372,
                        0.38666372,
                        0.38666372
                    ],
                    "properties": {
                        "magmom": -0.0
                    },
                    "label": "Te",
                    "xyz": [
                        2.748819966203147,
                        2.748819966203147,
                        2.748819966203147
                    ]
                },
                {
                    "species": [
                        {
                            "element": "Te",
                            "occu": 1
                        }
                    ],
                    "abc": [
                        0.11333628,
                        0.6133362800000001,
                        0.88666372
                    ],
                    "properties": {
                        "magmom": -0.0
                    },
                    "label": "Te",
                    "xyz": [
                        0.805715698796852,
                        4.360251363796852,
                        6.303355631203148
                    ]
                },
                {
                    "species": [
                        {
                            "element": "Te",
                            "occu": 1
                        }
                    ],
                    "abc": [
                        0.88666372,
                        0.11333628,
                        0.6133362800000001
                    ],
                    "properties": {
                        "magmom": -0.0
                    },
                    "label": "Te",
                    "xyz": [
                        6.303355631203148,
                        0.805715698796852,
                        4.360251363796852
                    ]
                },
                {
                    "species": [
                        {
                            "element": "Te",
                            "occu": 1
                        }
                    ],
                    "abc": [
                        0.6133362800000001,
                        0.88666372,
                        0.11333628
                    ],
                    "properties": {
                        "magmom": -0.0
                    },
                    "label": "Te",
                    "xyz": [
                        4.360251363796852,
                        6.303355631203148,
                        0.805715698796852
                    ]
                },
                {
                    "species": [
                        {
                            "element": "Te",
                            "occu": 1
                        }
                    ],
                    "abc": [
                        0.6133362800000001,
                        0.6133362800000001,
                        0.6133362800000001
                    ],
                    "properties": {
                        "magmom": -0.0
                    },
                    "label": "Te",
                    "xyz": [
                        4.360251363796852,
                        4.360251363796852,
                        4.360251363796852
                    ]
                },
                {
                    "species": [
                        {
                            "element": "Te",
                            "occu": 1
                        }
                    ],
                    "abc": [
                        0.88666372,
                        0.38666372,
                        0.11333628
                    ],
                    "properties": {
                        "magmom": -0.0
                    },
                    "label": "Te",
                    "xyz": [
                        6.303355631203148,
                        2.748819966203147,
                        0.805715698796852
                    ]
                },
                {
                    "species": [
                        {
                            "element": "Te",
                            "occu": 1
                        }
                    ],
                    "abc": [
                        0.11333628,
                        0.88666372,
                        0.38666372
                    ],
                    "properties": {
                        "magmom": -0.0
                    },
                    "label": "Te",
                    "xyz": [
                        0.805715698796852,
                        6.303355631203148,
                        2.748819966203147
                    ]
                },
                {
                    "species": [
                        {
                            "element": "Te",
                            "occu": 1
                        }
                    ],
                    "abc": [
                        0.38666372,
                        0.11333628,
                        0.88666372
                    ],
                    "properties": {
                        "magmom": -0.0
                    },
                    "label": "Te",
                    "xyz": [
                        2.748819966203147,
                        0.805715698796852,
                        6.303355631203148
                    ]
                }
            ]
        },
        "order": 2,
        "elastic_tensor": {
            "raw": [
                [
                    64.47389317230046,
                    23.661649095072605,
                    23.661649095072605,
                    -7.025630077706067e-17,
                    4.1633363423443364e-17,
                    8.326672684688673e-17
                ],
                [
                    23.661649095072605,
                    64.47389317230046,
                    23.661649095072605,
                    8.326672684688673e-17,
                    -7.025630077706067e-17,
                    2.498862387623646e-15
                ],
                [
                    23.661649095072605,
                    23.661649095072605,
                    64.47389317230048,
                    4.163336342344339e-17,
                    8.326672684688678e-17,
                    -7.025630077706072e-17
                ],
                [
                    -7.025630077706067e-17,
                    8.326672684688673e-17,
                    4.163336342344339e-17,
                    23.425612181203114,
                    0.0,
                    1.1030888802508202e-32
                ],
                [
                    4.1633363423443364e-17,
                    -7.025630077706067e-17,
                    8.326672684688678e-17,
                    0.0,
                    23.42561110620313,
                    -6.502644522980131e-16
                ],
                [
                    8.326672684688673e-17,
                    2.498862387623646e-15,
                    -7.025630077706072e-17,
                    1.1030888802508202e-32,
                    -6.502644522980131e-16,
                    23.42561218120313
                ]
            ],
            "ieee_format": [
                [
                    64.0,
                    24.0,
                    24.0,
                    0.0,
                    -0.0,
                    -0.0
                ],
                [
                    24.0,
                    64.0,
                    24.0,
                    -0.0,
                    0.0,
                    -0.0
                ],
                [
                    24.0,
                    24.0,
                    64.0,
                    -0.0,
                    -0.0,
                    0.0
                ],
                [
                    0.0,
                    -0.0,
                    -0.0,
                    23.0,
                    -0.0,
                    -0.0
                ],
                [
                    -0.0,
                    0.0,
                    -0.0,
                    -0.0,
                    23.0,
                    -0.0
                ],
                [
                    -0.0,
                    -0.0,
                    0.0,
                    -0.0,
                    -0.0,
                    23.0
                ]
            ]
        },
        "compliance_tensor": {
            "raw": [
                [
                    19.316556671370126,
                    -5.185894066396905,
                    -5.185894066396903,
                    8.558275604489643e-17,
                    -3.145030152219997e-17,
                    4.689767491425914e-16
                ],
                [
                    -5.185894066396905,
                    19.316556671370126,
                    -5.185894066396903,
                    -7.499748375293591e-17,
                    8.558275997228428e-17,
                    -2.057660045777082e-15
                ],
                [
                    -5.185894066396904,
                    -5.185894066396903,
                    19.316556671370122,
                    -3.1450300078947504e-17,
                    -7.499748719456625e-17,
                    6.295569889404233e-16
                ],
                [
                    8.558275604489643e-17,
                    -7.499748375293591e-17,
                    -3.1450300078947504e-17,
                    42.68831876258958,
                    -2.65238767397381e-34,
                    -1.2499886089070981e-32
                ],
                [
                    -3.145030152219997e-17,
                    8.558275997228428e-17,
                    -7.499748719456625e-17,
                    -2.65238767397381e-34,
                    42.68832072155414,
                    1.1849721270378192e-15
                ],
                [
                    4.689767491425913e-16,
                    -2.057660045777082e-15,
                    6.295569889404234e-16,
                    -1.2499886089070981e-32,
                    1.1849721270378192e-15,
                    42.68831876258955
                ]
            ],
            "ieee_format": [
                [
                    19.0,
                    -5.0,
                    -5.0,
                    -0.0,
                    0.0,
                    -0.0
                ],
                [
                    -5.0,
                    19.0,
                    -5.0,
                    -0.0,
                    -0.0,
                    0.0
                ],
                [
                    -5.0,
                    -5.0,
                    19.0,
                    0.0,
                    -0.0,
                    -0.0
                ],
                [
                    -0.0,
                    -0.0,
                    0.0,
                    44.0,
                    0.0,
                    0.0
                ],
                [
                    0.0,
                    -0.0,
                    -0.0,
                    0.0,
                    44.0,
                    0.0
                ],
                [
                    -0.0,
                    0.0,
                    -0.0,
                    0.0,
                    0.0,
                    44.0
                ]
            ]
        },
        "bulk_modulus": {
            "voigt": 37.266,
            "reuss": 37.266,
            "vrh": 37.266
        },
        "shear_modulus": {
            "voigt": 22.218,
            "reuss": 22.117,
            "vrh": 22.167
        },
        "sound_velocity": {
            "transverse": 2071.240213865479,
            "longitudinal": 3596.125114377884,
            "snyder_acoustic": 15.430520537188222,
            "snyder_optical": 0.25149700566841804,
            "snyder_total": 15.682017542856642
        },
        "thermal_conductivity": {
            "clarke": 0.40825113712030503,
            "cahill": 0.44679398594606806
        },
        "young_modulus": null,
        "universal_anisotropy": 0.023,
        "homogeneous_poisson": 0.252,
        "debye_temperature": 220.51695492176668,
        "fitting_data": {
            "deformations": [
                [
                    [
                        1.004987562112089,
                        0.0,
                        0.0
                    ],
                    [
                        0.0,
                        1.0,
                        0.0
                    ],
                    [
                        0.0,
                        0.0,
                        1.0
                    ]
                ],
                [
                    [
                        1.009950493836207,
                        0.0,
                        0.0
                    ],
                    [
                        0.0,
                        1.0,
                        0.0
                    ],
                    [
                        0.0,
                        0.0,
                        1.0
                    ]
                ],
                [
                    [
                        1.0,
                        0.0,
                        -0.01
                    ],
                    [
                        0.0,
                        1.0,
                        0.0
                    ],
                    [
                        0.0,
                        0.0,
                        0.9999499987499371
                    ]
                ],
                [
                    [
                        0.989949493661166,
                        0.0,
                        0.0
                    ],
                    [
                        0.0,
                        1.0,
                        0.0
                    ],
                    [
                        0.0,
                        0.0,
                        1.0
                    ]
                ],
                [
                    [
                        1.0,
                        0.0,
                        -0.02
                    ],
                    [
                        0.0,
                        1.0,
                        0.0
                    ],
                    [
                        0.0,
                        0.0,
                        0.9997999799959991
                    ]
                ],
                [
                    [
                        1.0,
                        0.0,
                        0.0
                    ],
                    [
                        0.0,
                        1.0,
                        -0.01
                    ],
                    [
                        0.0,
                        0.0,
                        0.9999499987499371
                    ]
                ],
                [
                    [
                        0.99498743710662,
                        0.0,
                        0.0
                    ],
                    [
                        0.0,
                        1.0,
                        0.0
                    ],
                    [
                        0.0,
                        0.0,
                        1.0
                    ]
                ],
                [
                    [
                        1.0,
                        0.0,
                        0.0
                    ],
                    [
                        0.0,
                        1.0,
                        -0.02
                    ],
                    [
                        0.0,
                        0.0,
                        0.9997999799959991
                    ]
                ]
            ],
            "strains": [
                [
                    [
                        0.004999999999999,
                        0.0,
                        0.0
                    ],
                    [
                        0.0,
                        0.0,
                        0.0
                    ],
                    [
                        0.0,
                        0.0,
                        0.0
                    ]
                ],
                [
                    [
                        0.01,
                        0.0,
                        0.0
                    ],
                    [
                        0.0,
                        0.0,
                        0.0
                    ],
                    [
                        0.0,
                        0.0,
                        0.0
                    ]
                ],
                [
                    [
                        0.0,
                        0.0,
                        -0.005
                    ],
                    [
                        0.0,
                        0.0,
                        0.0
                    ],
                    [
                        -0.005,
                        0.0,
                        0.0
                    ]
                ],
                [
                    [
                        -0.009999999999999001,
                        0.0,
                        0.0
                    ],
                    [
                        0.0,
                        0.0,
                        0.0
                    ],
                    [
                        0.0,
                        0.0,
                        0.0
                    ]
                ],
                [
                    [
                        0.0,
                        0.0,
                        -0.01
                    ],
                    [
                        0.0,
                        0.0,
                        0.0
                    ],
                    [
                        -0.01,
                        0.0,
                        0.0
                    ]
                ],
                [
                    [
                        0.0,
                        0.0,
                        0.0
                    ],
                    [
                        0.0,
                        0.0,
                        -0.005
                    ],
                    [
                        0.0,
                        -0.005,
                        0.0
                    ]
                ],
                [
                    [
                        -0.005,
                        0.0,
                        0.0
                    ],
                    [
                        0.0,
                        0.0,
                        0.0
                    ],
                    [
                        0.0,
                        0.0,
                        0.0
                    ]
                ],
                [
                    [
                        0.0,
                        0.0,
                        0.0
                    ],
                    [
                        0.0,
                        0.0,
                        -0.01
                    ],
                    [
                        0.0,
                        -0.01,
                        0.0
                    ]
                ]
            ],
            "cauchy_stresses": [
                [
                    [
                        0.309755457,
                        -0.0,
                        -0.0
                    ],
                    [
                        -0.0,
                        0.113061666,
                        -0.0
                    ],
                    [
                        -0.0,
                        0.0,
                        0.11279956000000001
                    ]
                ],
                [
                    [
                        0.6074640130000001,
                        -0.0,
                        -0.0
                    ],
                    [
                        -0.0,
                        0.22794160500000002,
                        0.0
                    ],
                    [
                        -0.0,
                        -0.0,
                        0.22662273500000002
                    ]
                ],
                [
                    [
                        -0.00439756,
                        -0.0,
                        -0.23289024800000002
                    ],
                    [
                        -0.0,
                        -0.0015136650000000002,
                        -0.0
                    ],
                    [
                        -0.232890235,
                        -0.0,
                        -0.008165857
                    ]
                ],
                [
                    [
                        -0.6879407860000001,
                        -0.0,
                        -0.0
                    ],
                    [
                        -0.0,
                        -0.25372311200000003,
                        -0.0
                    ],
                    [
                        -0.0,
                        0.0,
                        -0.256125816
                    ]
                ],
                [
                    [
                        -0.011929365,
                        -0.0,
                        -0.457689468999999
                    ],
                    [
                        -0.0,
                        -0.0014473040000000002,
                        -0.0
                    ],
                    [
                        -0.45768942100000004,
                        -0.0,
                        -0.027461324999999003
                    ]
                ],
                [
                    [
                        -0.001513732,
                        -0.0,
                        -0.0
                    ],
                    [
                        -0.0,
                        -0.0035105580000000004,
                        -0.23288128300000002
                    ],
                    [
                        -0.0,
                        -0.23288129700000001,
                        -0.009052931
                    ]
                ],
                [
                    [
                        -0.33569534500000003,
                        -0.0,
                        -0.0
                    ],
                    [
                        -0.0,
                        -0.12461008500000001,
                        0.0
                    ],
                    [
                        -0.0,
                        0.0,
                        -0.12505491100000002
                    ]
                ],
                [
                    [
                        -0.001447354,
                        -0.0,
                        -0.0
                    ],
                    [
                        -0.0,
                        -0.009151046000000001,
                        -0.45763372900000004
                    ],
                    [
                        -0.0,
                        -0.45763376800000005,
                        -0.030239738000000002
                    ]
                ]
            ],
            "second_pk_stresses": [
                [
                    [
                        0.308218199585491,
                        0.0,
                        0.0
                    ],
                    [
                        0.0,
                        0.11362556808167101,
                        0.0
                    ],
                    [
                        0.0,
                        0.0,
                        0.113362154811716
                    ]
                ],
                [
                    [
                        0.6014789999187,
                        0.0,
                        0.0
                    ],
                    [
                        0.0,
                        0.230209736535567,
                        0.0
                    ],
                    [
                        0.0,
                        0.0,
                        0.22887774312776202
                    ]
                ],
                [
                    [
                        -0.009055961573035001,
                        0.0,
                        -0.23297191065323403
                    ],
                    [
                        0.0,
                        -0.0015135893148570001,
                        0.0
                    ],
                    [
                        -0.232971897653234,
                        0.0,
                        -0.008166265323474
                    ]
                ],
                [
                    [
                        -0.694925135479147,
                        0.0,
                        0.0
                    ],
                    [
                        0.0,
                        -0.251173066254535,
                        0.0
                    ],
                    [
                        0.0,
                        0.0,
                        -0.25355162186275304
                    ]
                ],
                [
                    [
                        -0.030245543415930002,
                        0.0,
                        -0.45823880537826406
                    ],
                    [
                        0.0,
                        -0.001447014510248,
                        0.0
                    ],
                    [
                        -0.45823875737826403,
                        0.0,
                        -0.027466818913228
                    ]
                ],
                [
                    [
                        -0.001513656311507,
                        0.0,
                        0.0
                    ],
                    [
                        0.0,
                        -0.008168913606079001,
                        -0.232971816836805
                    ],
                    [
                        0.0,
                        -0.232971830836805,
                        -0.009053383680501001
                    ]
                ],
                [
                    [
                        -0.337386516131487,
                        0.0,
                        0.0
                    ],
                    [
                        0.0,
                        -0.12398546911178801,
                        0.0
                    ],
                    [
                        0.0,
                        0.0,
                        -0.12442806539348601
                    ]
                ],
                [
                    [
                        -0.0014470645002470001,
                        0.0,
                        0.0
                    ],
                    [
                        0.0,
                        -0.027466663862847,
                        -0.45823864475525106
                    ],
                    [
                        0.0,
                        -0.458238683755251,
                        -0.030245787762589002
                    ]
                ]
            ],
            "deformation_tasks": [
                "mp-2416795",
                "mp-2417770",
                "mp-2417794",
                "mp-2417805",
                "mp-2417864",
                "mp-2417878",
                "mp-2417926",
                "mp-2503770"
            ],
            "deformation_dir_names": [
                "login22.chn:/pscratch/sd/t/tsm/mjwen-elastic-tasks-2022-reparse/block_2022-03-02-04-41-50-849691/launcher_2022-03-02-09-35-04-278671",
                "login22.chn:/pscratch/sd/t/tsm/mjwen-elastic-tasks-2022-reparse/block_2022-03-02-04-41-50-849691/launcher_2022-03-02-06-00-21-984823",
                "login22.chn:/pscratch/sd/t/tsm/mjwen-elastic-tasks-2022-reparse/block_2022-03-02-04-41-50-849691/launcher_2022-03-02-09-34-43-483211",
                "login22.chn:/pscratch/sd/t/tsm/mjwen-elastic-tasks-2022-reparse/block_2022-03-02-04-41-50-849691/launcher_2022-03-02-09-35-09-389471",
                "login22.chn:/pscratch/sd/t/tsm/mjwen-elastic-tasks-2022-reparse/block_2022-03-02-04-41-50-849691/launcher_2022-03-02-09-34-51-509361",
                "login22.chn:/pscratch/sd/t/tsm/mjwen-elastic-tasks-2022-reparse/block_2022-03-02-04-41-50-849691/launcher_2022-03-02-06-00-16-881231",
                "login22.chn:/pscratch/sd/t/tsm/mjwen-elastic-tasks-2022-reparse/block_2022-03-02-04-41-50-849691/launcher_2022-03-02-06-00-27-635032",
                "login22.chn:/pscratch/sd/t/tsm/mjwen-elastic-tasks-2022-reparse/block_2022-03-02-04-41-50-849691/launcher_2022-03-02-09-34-58-857915"
            ],
            "equilibrium_cauchy_stress": [
                [
                    -0.002875868,
                    -0.0,
                    0.0
                ],
                [
                    -0.0,
                    -0.002875868,
                    0.0
                ],
                [
                    0.0,
                    0.0,
                    -0.002875868
                ]
            ],
            "optimization_task": "mp-2417859",
            "optimization_dir_name": "cori07:/global/cscratch1/sd/huck/mjwen-elastic-tasks-2022/block_2022-03-02-04-41-50-849691/launcher_2022-03-02-06-32-37-588387",
            "num_total_strain_stress_states": 24
        },
        "fitting_method": "finite_difference",
        "state": "successful"
    }
]